<?xml version="1.0" encoding="UTF-8"?>

<!-- generated on Sun Nov 22 16:16:50 2020 by Eclipse SUMO sumo Version v1_7_0+0890-63ce6de543
<configuration xmlns:xsi="http://www.w3.org/2001/XMLSchema-instance" xsi:noNamespaceSchemaLocation="http://sumo.dlr.de/xsd/sumoConfiguration.xsd">

    <input>
        <net-file value="saopaulo.net.xml"/>
        <route-files value="trips.trips.xml"/>
        <additional-files value="busstops.xml"/>
    </input>

    <output>
        <vehroute-output value="vehroutes.xml"/>
        <stop-output value="stopinfos.xml"/>
    </output>

    <time>
        <begin value="0"/>
    </time>

    <processing>
        <ignore-route-errors value="true"/>
    </processing>

    <routing>
        <device.rerouting.adaptation-interval value="0"/>
    </routing>

    <report>
        <error-log value="trips.trips.xml.errorlog"/>
        <no-step-log value="true"/>
    </report>

</configuration>
-->

<routes xmlns:xsi="http://www.w3.org/2001/XMLSchema-instance" xsi:noNamespaceSchemaLocation="http://sumo.dlr.de/xsd/routes_file.xsd">
    <vehicle id="1_bus_T25:0" type="bus" depart="0.00" departLane="0" arrival="241.00">
        <route edges="93997238#0 93997238#1 93997238#2 93997238#3 93997238#4 93997238#5 93997238#6 93997238#7 -237521935#4 -237521935#3 -237521935#2 -237521935#1 -237521935#0"/>
        <stop busStop="6992430971" duration="30.00"/>
        <stop busStop="6992430973" duration="30.00"/>
        <stop busStop="6992430974" duration="30.00"/>
        <stop busStop="-6992430975" duration="30.00"/>
    </vehicle>

    <vehicle id="2_train_10:0" type="train" depart="0.00" departLane="0" arrival="589.00">
        <route edges="218651915 218801092#0 218801092#1 218801092#2"/>
        <stop busStop="2278811014" duration="30.00"/>
        <stop busStop="2280117742" duration="30.00"/>
        <stop busStop="2281353272" duration="30.00"/>
    </vehicle>

    <vehicle id="3_bus_B19:0" type="bus" depart="0.00" departLane="0" arrival="642.00">
        <route edges="758913936#0 758913936#1 758913934#0 758913934#1 758913934#2 758913934#3 313159264#0 313159264#1 313159264#2 313159264#3 94016889 432967930#0 432967930#1 94003572#0 94003572#1 94003572#2 94003572#3 94003572#4 94003572#5 94012417#0 94012417#1 94012417#2 94012417#3 94012417#4 94012417#5 94012417#6 94012417#7 94012417#8 94012417#9 726839598 -726839600#1 -726839600#0"/>
        <stop busStop="5616176792" duration="30.00"/>
        <stop busStop="6465699087" duration="30.00"/>
    </vehicle>

    <vehicle id="4_train_10:1" type="train" depart="0.00" departLane="0" arrival="767.00">
        <route edges="27017560 218801097#0 218801097#1 218801097#2"/>
        <stop busStop="656349268" duration="30.00"/>
        <stop busStop="656351141" duration="30.00"/>
        <stop busStop="2278811013" duration="30.00"/>
        <stop busStop="656353782" duration="30.00"/>
    </vehicle>

</routes>
